 &FCI NORB=  2,NELEC= 2,MS2= 0,
  ORBSYM=1,1
  ISYM=1
 &END
   0.812198201807             1     1     1     1
   0.734711056210E-02         1     1     2     1
   0.716745595909E-02         2     1     2     1
   0.734711056210E-02         2     2     2     1
   0.395257232571             1     1     2     2
   0.812198201807             2     2     2     2
  -0.829332748838             1     1     0     0
   0.198732182180             2     1     0     0
  -0.829332748838             2     2     0     0
   0.448455263477             0     0     0     0
