 &FCI NORB=  3,NELEC= 4,MS2= 0,
  ORBSYM=1,1,1
  ISYM=1
 &END
    4.74105698277             1     1     1     1
  -0.423267898846             1     1     2     1
   0.594204108610E-01         2     1     2     1
  -0.151480502561E-01         2     2     2     1
    1.00129310169             1     1     2     2
   0.702672433957             2     2     2     2
   0.767671611621E-09         1     1     3     1
  -0.977133289758E-10         2     1     3     1
   0.695245840208E-10         2     2     3     1
   0.725470066202E-02         3     1     3     1
   0.130589460404E-01         3     2     3     1
  -0.741193832459E-11         3     3     3     1
  -0.446540574971E-09         1     1     3     2
   0.407632721135E-10         2     1     3     2
   0.281374438403E-09         2     2     3     2
   0.130725131433             3     2     3     2
   0.180905779039E-10         3     3     3     2
   0.708062883263             1     1     3     3
  -0.354706196424E-02         2     1     3     3
   0.595145595605             2     2     3     3
   0.594533066392             3     3     3     3
   -32.6977022299             1     1     0     0
   0.584102225927             2     1     0     0
   -7.60070434203             2     2     0     0
  -0.112078522158E-08         3     1     0     0
   0.898140672945E-09         3     2     0     0
   -5.91736096317             3     3     0     0
    9.15711604021             0     0     0     0
