 &FCI NORB=  2,NELEC= 2,MS2= 0,
  ORBSYM=1,1
  ISYM=1
 &END
   0.701337729147             1     1     1     1
   0.173730643747             2     1     2     1
   0.688793097403             1     1     2     2
   0.724506024488             2     2     2     2
   -1.34221399480             1     1     0     0
  -0.365770569325             2     2     0     0
   0.881962018172             0     0     0     0
