 &FCI NORB=  6,NELEC= 6,MS2= 0,
  ORBSYM=1,1,1,1,1,1
  ISYM=1
 &END
    4.76723843871             1     1     1     1
  -0.377735331757             1     1     2     1
   0.520922765312E-01         2     1     2     1
  -0.499136305334E-02         2     2     2     1
    1.05228158454             1     1     2     2
   0.817753911329             2     2     2     2
  -0.392251451880E-07         1     1     3     1
   0.358760404247E-08         2     1     3     1
  -0.550060929926E-08         2     2     3     1
   0.174844341503E-01         3     1     3     1
   0.238674103878E-01         3     2     3     1
   0.457528373762E-08         3     3     3     1
   0.952178204016E-08         1     1     3     2
  -0.255232183902E-08         2     1     3     2
  -0.223020198012E-07         2     2     3     2
   0.151726736866             3     2     3     2
   0.307053079258E-07         3     3     3     2
   0.961216498404             1     1     3     3
  -0.469668025649E-02         2     1     3     3
   0.726339499540             2     2     3     3
   0.739034708930             3     3     3     3
   0.185397937483             1     1     4     1
  -0.170384242311E-01         2     1     4     1
   0.245885843511E-01         2     2     4     1
  -0.176800260675E-08         3     1     4     1
   0.197299298517E-08         3     2     4     1
   0.581210673565E-02         3     3     4     1
   0.310203730870E-01         4     1     4     1
   0.197051873572E-01         4     2     4     1
   0.207133732829E-08         4     3     4     1
  -0.156898310234E-01         4     4     4     1
  -0.445443497753E-01         1     1     4     2
   0.101318493641E-01         2     1     4     2
   0.630576850277E-01         2     2     4     2
   0.196959557009E-08         3     1     4     2
   0.949299925005E-08         3     2     4     2
  -0.476859405696E-02         3     3     4     2
   0.985232297161E-01         4     2     4     2
   0.517963461647E-08         4     3     4     2
  -0.860757363980E-01         4     4     4     2
  -0.456461785351E-08         1     1     4     3
   0.197328547251E-08         2     1     4     3
   0.113771580880E-07         2     2     4     3
  -0.864462242414E-02         3     1     4     3
  -0.222650213747E-01         3     2     4     3
  -0.513542505217E-08         3     3     4     3
   0.491276598960E-01         4     3     4     3
  -0.898238636270E-08         4     4     4     3
    1.08714567828             1     1     4     4
  -0.155763237801E-01         2     1     4     4
   0.701055287520             2     2     4     4
  -0.157969404951E-08         3     1     4     4
   0.576961736401E-09         3     2     4     4
   0.695474205279             3     3     4     4
   0.906405013654             4     4     4     4
   0.251484293226E-01         5     1     5     1
   0.310493921831E-01         5     2     5     1
   0.326455715860E-08         5     3     5     1
  -0.137281890082E-01         5     4     5     1
   0.148800013998             5     2     5     2
   0.115626864116E-07         5     3     5     2
  -0.470826686357E-01         5     4     5     2
   0.389117770551E-01         5     3     5     3
  -0.494787090956E-08         5     4     5     3
   0.649458720862E-01         5     4     5     4
    1.11561524000             1     1     5     5
  -0.757069952363E-02         2     1     5     5
   0.775365101480             2     2     5     5
  -0.735373778429E-09         3     1     5     5
   0.674940959757E-08         3     2     5     5
   0.711308716067             3     3     5     5
   0.519895588406E-02         4     1     5     5
  -0.291982265988E-01         4     2     5     5
  -0.300746771871E-08         4     3     5     5
   0.774608155598             4     4     5     5
   0.880159093375             5     5     5     5
   0.220858484672             1     1     6     1
  -0.320531140696E-01         2     1     6     1
  -0.746134213193E-03         2     2     6     1
  -0.344463378364E-08         3     1     6     1
  -0.676656632186E-09         3     2     6     1
   0.427116813583E-02         3     3     6     1
   0.284651847076E-02         4     1     6     1
  -0.131407842642E-01         4     2     6     1
  -0.133254462541E-08         4     3     6     1
   0.188022321091E-01         4     4     6     1
   0.710070819798E-02         5     5     6     1
   0.220601374394E-01         6     1     6     1
   0.111696205475E-02         6     2     6     1
   0.890258315867E-10         6     3     6     1
   0.107557789952E-02         6     4     6     1
  -0.345717217490E-02         6     6     6     1
  -0.301654287711             1     1     6     2
   0.285191554723E-02         2     1     6     2
  -0.152480209146             2     2     6     2
   0.692238506110E-09         3     1     6     2
  -0.837460970710E-08         3     2     6     2
  -0.976584836998E-01         3     3     6     2
  -0.158381730911E-01         4     1     6     2
  -0.227874547968E-01         4     2     6     2
  -0.290168118622E-08         4     3     6     2
  -0.110436570097             4     4     6     2
  -0.150819737667             5     5     6     2
   0.850959973786E-01         6     2     6     2
   0.383318158418E-08         6     3     6     2
   0.414925119209E-01         6     4     6     2
  -0.392801726011E-01         6     6     6     2
  -0.336064657551E-07         1     1     6     3
   0.819931984189E-09         2     1     6     3
  -0.216710015812E-07         2     2     6     3
  -0.465063495754E-02         3     1     6     3
   0.239006590744E-01         3     2     6     3
  -0.586074451997E-08         3     3     6     3
  -0.166007438114E-08         4     1     6     3
  -0.277387236961E-08         4     2     6     3
   0.597973671778E-02         4     3     6     3
  -0.125807559034E-07         4     4     6     3
  -0.167341307825E-07         5     5     6     3
   0.539808135086E-01         6     3     6     3
   0.466439056556E-08         6     4     6     3
  -0.335423595915E-08         6     6     6     3
  -0.131623304927             1     1     6     4
  -0.892360667029E-03         2     1     6     4
  -0.668513932584E-01         2     2     6     4
  -0.488267773442E-10         3     1     6     4
  -0.212696476762E-08         3     2     6     4
  -0.436777820500E-01         3     3     6     4
  -0.437465535980E-02         4     1     6     4
  -0.271947355756E-02         4     2     6     4
  -0.478743669675E-09         4     3     6     4
  -0.787542024888E-01         4     4     6     4
  -0.651498622564E-01         5     5     6     4
   0.282363249147E-01         6     4     6     4
  -0.729056379033E-02         6     6     6     4
  -0.135079572085E-01         5     1     6     5
  -0.530260797946E-01         5     2     6     5
  -0.569003731043E-08         5     3     6     5
   0.771861296556E-02         5     4     6     5
   0.259549753273E-01         6     5     6     5
   0.652610548675             1     1     6     6
  -0.884822357336E-03         2     1     6     6
   0.574005158850             2     2     6     6
   0.359522016556E-10         3     1     6     6
   0.492658842093E-08         3     2     6     6
   0.538006812290             3     3     6     6
   0.156938051745E-01         4     1     6     6
   0.623287463082E-01         4     2     6     6
   0.666963533415E-08         4     3     6     6
   0.476782073999             4     4     6     6
   0.513399507794             5     5     6     6
   0.542927863339             6     6     6     6
   -32.7117359716             1     1     0     0
   0.244737494120             2     1     0     0
   -7.90621597118             2     2     0     0
   0.224870495141E-07         3     1     0     0
  -0.883850821420E-07         3     2     0     0
   -7.07632526674             3     3     0     0
  -0.211182329505             4     1     0     0
   0.168765233793             4     2     0     0
   0.172661707154E-07         4     3     0     0
   -7.35670780078             4     4     0     0
   0.482650626893E-15         5     2     0     0
  -0.247358803187E-15         5     3     0     0
   0.157846671932E-15         5     4     0     0
   -7.45527080255             5     5     0     0
  -0.270735962010             6     1     0     0
    1.16735556588             6     2     0     0
   0.129963268924E-06         6     3     0     0
   0.559229989353             6     4     0     0
   0.666758782183E-15         6     5     0     0
   -4.68447973259             6     6     0     0
    9.15711604021             0     0     0     0
