 &FCI NORB=  6,NELEC= 6,MS2= 0,
  ORBSYM=1,1,1,1,1,1
  ISYM=1
 &END
    2.30642083801             1     1     1     1
   0.893570972205E-11         1     1     2     1
    1.82175145275             2     1     2     1
  -0.892146405804E-11         2     2     2     1
    2.30697771312             1     1     2     2
    2.30753559180             2     2     2     2
  -0.201502573538             1     1     3     1
  -0.477679332649E-12         2     1     3     1
  -0.201570889998             2     2     3     1
   0.308779362670E-01         3     1     3     1
  -0.238332718536E-14         3     2     3     1
  -0.874905529244E-02         3     3     3     1
  -0.471096944411E-12         1     1     3     2
  -0.198054391462             2     1     3     2
   0.147052957547E-11         2     2     3     2
   0.308685671156E-01         3     2     3     2
   0.218445516973E-13         3     3     3     2
   0.684281870226             1     1     3     3
  -0.228686868826E-13         2     1     3     3
   0.684326994663             2     2     3     3
   0.533063351335             3     3     3     3
   0.138831902138E-11         1     1     4     1
   0.185816373971             2     1     4     1
  -0.433109874451E-12         2     2     4     1
  -0.145453510091E-12         3     1     4     1
  -0.296679400154E-01         3     2     4     1
   0.195647043614E-13         3     3     4     1
   0.287823641332E-01         4     1     4     1
   0.290660220098E-14         4     2     4     1
  -0.317102921699E-02         4     3     4     1
   0.122053493913E-13         4     4     4     1
   0.192103502646             1     1     4     2
  -0.452519678712E-12         2     1     4     2
   0.192152638881             2     2     4     2
  -0.297458610733E-01         3     1     4     2
   0.145472785415E-12         3     2     4     2
   0.797955666012E-02         3     3     4     2
   0.290538974823E-01         4     2     4     2
   0.118374350938E-13         4     3     4     2
   0.506676819186E-02         4     4     4     2
  -0.142714435848E-11         1     1     4     3
  -0.291486845226             2     1     4     3
   0.142974537402E-11         2     2     4     3
   0.134601363911E-13         3     1     4     3
   0.571060063487E-02         3     2     4     3
   0.171529572146E-13         3     3     4     3
   0.212442330081             4     3     4     3
  -0.247841007182E-13         4     4     4     3
   0.668321216558             1     1     4     4
   0.304636431632E-13         2     1     4     4
   0.668442697503             2     2     4     4
  -0.742719740113E-02         3     1     4     4
   0.189915918452E-13         3     2     4     4
   0.531562195216             3     3     4     4
   0.545727435267             4     4     4     4
   0.132888674608E-15         2     1     5     1
   0.988571374132E-02         5     1     5     1
  -0.184765565726E-14         5     2     5     1
   0.163350891874E-01         5     3     5     1
  -0.279963674205E-13         5     4     5     1
   0.117253282137E-15         1     1     5     2
   0.115842863474E-15         2     2     5     2
   0.925792802760E-02         5     2     5     2
  -0.418338175105E-13         5     3     5     2
  -0.112966320484E-01         5     4     5     2
   0.885582611050E-01         5     3     5     3
   0.245290470045E-15         5     4     5     3
   0.509510737034E-01         5     4     5     4
   0.689398146192             1     1     5     5
  -0.151983353771E-14         2     1     5     5
   0.689355931512             2     2     5     5
  -0.638054845147E-02         3     1     5     5
   0.139344290296E-13         3     2     5     5
   0.533239812707             3     3     5     5
   0.195615338615E-13         4     1     5     5
   0.773291437648E-02         4     2     5     5
   0.236054414001E-14         4     3     5     5
   0.511131156756             4     4     5     5
   0.589347729464             5     5     5     5
   0.988571374132E-02         6     1     6     1
  -0.182088560329E-14         6     2     6     1
   0.163350891874E-01         6     3     6     1
  -0.280341696211E-13         6     4     6     1
   0.925792802760E-02         6     2     6     2
  -0.417933050948E-13         6     3     6     2
  -0.112966320484E-01         6     4     6     2
   0.885582611050E-01         6     3     6     3
   0.509510737034E-01         6     4     6     4
   0.240925447330E-01         6     5     6     5
   0.689398146192             1     1     6     6
  -0.100029632347E-14         2     1     6     6
   0.689355931512             2     2     6     6
  -0.638054845147E-02         3     1     6     6
   0.139133184766E-13         3     2     6     6
   0.533239812707             3     3     6     6
   0.195860791357E-13         4     1     6     6
   0.773291437648E-02         4     2     6     6
   0.193468903787E-14         4     3     6     6
   0.511131156756             4     4     6     6
   0.541162639998             5     5     6     6
   0.589347729464             6     6     6     6
   -27.5710839081             1     1     0     0
  -0.133799221702E-13         2     1     0     0
   -27.5729216330             2     2     0     0
   0.523810171707             3     1     0     0
  -0.127570176645E-11         3     2     0     0
   -8.16903457393             3     3     0     0
  -0.125333424195E-11         4     1     0     0
  -0.501314731950             4     2     0     0
  -0.215383266777E-13         4     3     0     0
   -7.69007333937             4     4     0     0
  -0.105867019091E-15         5     1     0     0
  -0.150749803403E-14         5     2     0     0
   -8.07465719019             5     5     0     0
   -8.07465719019             6     6     0     0
    23.7451312585             0     0     0     0
