 &FCI NORB=  3,NELEC= 4,MS2= 0,
  ORBSYM=1,1,1
  ISYM=1
 &END
    2.30457670640             1     1     1     1
  -0.123828495257E-09         1     1     2     1
    1.81880148667             2     1     2     1
   0.123893903369E-09         2     2     2     1
    2.30371974304             1     1     2     2
    2.30286530531             2     2     2     2
  -0.212158752577             1     1     3     1
   0.732589546792E-11         2     1     3     1
  -0.211969455088             2     2     3     1
   0.348955520222E-01         3     1     3     1
   0.376046670544E-14         3     2     3     1
  -0.660304718613E-02         3     3     3     1
   0.744400556385E-11         1     1     3     2
  -0.215374735230             2     1     3     2
  -0.218835282696E-10         2     2     3     2
   0.347742493066E-01         3     2     3     2
  -0.224535180126E-12         3     3     3     2
   0.758448565884             1     1     3     3
  -0.577715263263E-14         2     1     3     3
   0.758508058719             2     2     3     3
   0.650996153302             3     3     3     3
   -27.5683338771             1     1     0     0
  -0.544707508265E-13         2     1     0     0
   -27.5667762481             2     2     0     0
   0.593156627099             3     1     0     0
   0.201922020771E-10         3     2     0     0
   -9.18244877519             3     3     0     0
    23.7451312585             0     0     0     0
