&FCI NORB=114,NELEC=42,MS2=0,
  ORBSYM=1,1,1,1,1,1,1,1,1,1,1,1,1,1,1,1,1,1,1,1,1,1,1,1,2,2,2,2,2,2,2,2,2,2,2,2,2,2,2,2,2,2,3,3,3,3,3,3,3,3,3,3,3,3,3,3,3,3,3,3,3,3,3,3,3,3,4,4,4,4,4,4,4,4,4,4,4,4,4,4,4,4,4,4,5,5,5,5,5,5,5,5,5,6,6,6,6,6,6,7,7,7,7,7,7,7,7,7,8,8,8,8,8,8
  ISYM=1
 &END
   0.815127535859             1     1     1     1
  -0.229932098611E-04         1     1     2     1
   0.516589994784             2     1     2     1
  -0.365330707799             2     2     2     1
  -0.279603386484E-05       114   112     0     0
   0.345925448030E-05       114   113     0     0
   -9.75012250603           114   114     0     0
    203.153509749             0     0     0     0
