 &FCI NORB=  6,NELEC= 6,MS2= 0,
  ORBSYM=1,1,1,1,1,1
  ISYM=1
 &END
    2.16232181227             1     1     1     1
   0.406563539578E-07         1     1     2     1
    1.97345934191             2     1     2     1
  -0.406536799809E-07         2     2     2     1
    2.16245141021             1     1     2     2
    2.16258104557             2     2     2     2
  -0.632183678708E-08         1     1     3     1
  -0.204235214157             2     1     3     1
   0.209280019065E-08         2     2     3     1
   0.316190636408E-01         3     1     3     1
   0.309787756887E-11         3     2     3     1
  -0.969146127526E-10         3     3     3     1
  -0.204322128671             1     1     3     2
   0.209370810994E-08         2     1     3     2
  -0.204343122900             2     2     3     2
   0.316253655210E-01         3     2     3     2
  -0.927905351239E-02         3     3     3     2
   0.575577134526             1     1     3     3
   0.371005752708E-10         2     1     3     3
   0.575579971573             2     2     3     3
   0.437213341208             3     3     3     3
  -0.206181925443             1     1     4     1
  -0.211516661556E-08         2     1     4     1
  -0.206203007190             2     2     4     1
   0.657696304217E-09         3     1     4     1
   0.319249473386E-01         3     2     4     1
  -0.933692021429E-02         3     3     4     1
   0.322279519877E-01         4     1     4     1
  -0.299811629726E-11         4     2     4     1
  -0.970266009306E-10         4     3     4     1
  -0.951392676746E-02         4     4     4     1
  -0.211585794609E-08         1     1     4     2
  -0.206274813799             2     1     4     2
   0.638324921380E-08         2     2     4     2
   0.319248415568E-01         3     1     4     2
  -0.657666216567E-09         3     2     4     2
   0.957459469393E-10         3     3     4     2
   0.322344509705E-01         4     2     4     2
  -0.946007528571E-02         4     3     4     2
   0.993728108621E-10         4     4     4     2
   0.800535020107E-08         1     1     4     3
   0.388579598787             2     1     4     3
  -0.800482005204E-08         2     2     4     3
  -0.931822347440E-02         3     1     4     3
   0.955374541261E-10         3     2     4     3
   0.240746243489E-10         3     3     4     3
   0.249618703250             4     3     4     3
  -0.243027572268E-10         4     4     4     3
   0.579383505582             1     1     4     4
  -0.377914711814E-10         2     1     4     4
   0.579386988977             2     2     4     4
  -0.969890331662E-10         3     1     4     4
  -0.945874636084E-02         3     2     4     4
   0.438358249378             3     3     4     4
   0.439696683207             4     4     4     4
   0.108187611083E-09         1     1     5     1
   0.259906327563E-02         2     1     5     1
   0.938274066398E-12         2     2     5     1
  -0.556526113105E-03         3     1     5     1
  -0.702059446276E-12         3     2     5     1
   0.160116119517E-10         3     3     5     1
  -0.137275883787E-10         4     1     5     1
  -0.656303628100E-03         4     2     5     1
  -0.107901279731E-02         4     3     5     1
   0.127176072293E-10         4     4     5     1
   0.107667761078E-01         5     1     5     1
   0.683867369153E-12         5     2     5     1
   0.160246755717E-09         5     3     5     1
   0.148209799674E-01         5     4     5     1
   0.114536175595E-10         5     5     5     1
   0.495761876009E-02         1     1     5     2
  -0.234130004286E-10         2     1     5     2
   0.494206664338E-02         2     2     5     2
  -0.698455324443E-12         3     1     5     2
  -0.561502420671E-03         3     2     5     2
   0.156522704299E-02         3     3     5     2
  -0.643246798840E-03         4     1     5     2
   0.130441210795E-10         4     2     5     2
   0.114068190894E-10         4     3     5     2
   0.115741622136E-02         4     4     5     2
   0.108322428029E-01         5     2     5     2
   0.154881654721E-01         5     3     5     2
  -0.153417529984E-09         5     4     5     2
   0.115448914135E-02         5     5     5     2
   0.982041223231E-02         1     1     5     3
  -0.103776891037E-10         2     1     5     3
   0.979818289993E-02         2     2     5     3
   0.187996967074E-11         3     1     5     3
   0.169585149316E-03         3     2     5     3
   0.130024579460E-01         3     3     5     3
   0.727902487759E-04         4     1     5     3
  -0.279320025533E-12         4     2     5     3
  -0.593227848967E-11         4     3     5     3
   0.101792350819E-01         4     4     5     3
   0.782918755083E-01         5     3     5     3
   0.579026490422E-13         5     4     5     3
   0.128311135480E-01         5     5     5     3
  -0.458610990363E-09         1     1     5     4
  -0.222355842364E-01         2     1     5     4
   0.457530837652E-09         2     2     5     4
   0.252995417094E-03         3     1     5     4
  -0.263539857447E-11         3     2     5     4
  -0.316014709029E-11         3     3     5     4
   0.126736835969E-11         4     1     5     4
   0.918941903267E-04         4     2     5     4
  -0.192437603872E-01         4     3     5     4
   0.395911975346E-11         4     4     5     4
   0.708433475594E-01         5     4     5     4
  -0.254975892647E-11         5     5     5     4
   0.574904071426             1     1     5     5
   0.345944243375E-12         2     1     5     5
   0.574905229761             2     2     5     5
  -0.603527501761E-10         3     1     5     5
  -0.583154444110E-02         3     2     5     5
   0.442602499059             3     3     5     5
  -0.586352803212E-02         4     1     5     5
   0.606985198276E-10         4     2     5     5
   0.575824204013E-12         4     3     5     5
   0.443313000249             4     4     5     5
   0.476659435870             5     5     5     5
   0.780660165967E-14         1     1     6     1
   0.781520406373E-14         2     2     6     1
  -0.965875255029E-15         3     2     6     1
   0.101393832001E-14         3     3     6     1
  -0.799449164715E-15         4     1     6     1
   0.153385184693E-14         4     4     6     1
   0.238359560645E-15         5     5     6     1
   0.110280642217E-01         6     1     6     1
   0.264026593871E-12         6     2     6     1
   0.160607622052E-09         6     3     6     1
   0.153087918968E-01         6     4     6     1
  -0.230097365852E-11         6     5     6     1
  -0.920930468250E-15         6     6     6     1
   0.792792679230E-14         2     1     6     2
  -0.972584075872E-15         3     1     6     2
  -0.795291827154E-15         4     2     6     2
   0.135967990307E-14         4     3     6     2
   0.110537233766E-01         6     2     6     2
   0.155216934100E-01         6     3     6     2
  -0.158430735624E-09         6     4     6     2
  -0.196676859655E-03         6     5     6     2
  -0.650822797100E-14         2     1     6     3
   0.558516209166E-15         3     1     6     3
   0.846031487960E-15         4     2     6     3
   0.381531514058E-15         4     3     6     3
   0.172658703378E-15         5     4     6     3
   0.759742777364E-01         6     3     6     3
  -0.140517620298E-12         6     4     6     3
  -0.373334170425E-03         6     5     6     3
   0.483900873046E-15         3     2     6     4
   0.331567443664E-14         3     3     6     4
   0.714171161203E-15         4     1     6     4
   0.577401207042E-14         4     4     6     4
  -0.212965955828E-15         5     5     6     4
   0.733003425602E-01         6     4     6     4
  -0.935625444095E-12         6     5     6     4
  -0.425599059854E-14         6     6     6     4
   0.299190061611E-15         2     1     6     5
   0.332294257624E-15         4     3     6     5
  -0.561099535904E-15         5     1     6     5
  -0.189724088235E-14         5     4     6     5
   0.204767995897E-01         6     5     6     5
   0.575724770389             1     1     6     6
  -0.199564478973E-14         2     1     6     6
   0.575725313468             2     2     6     6
  -0.617708725990E-10         3     1     6     6
  -0.596873602948E-02         3     2     6     6
   0.440206627418             3     3     6     6
  -0.598521778287E-02         4     1     6     6
   0.619577840799E-10         4     2     6     6
   0.191769249594E-12         4     3     6     6
   0.441744669042             4     4     6     6
   0.138656865637E-10         5     1     6     6
   0.133694032189E-02         5     2     6     6
   0.113189645016E-01         5     3     6     6
  -0.702276574201E-12         5     4     6     6
   0.433139786349             5     5     6     6
   0.472455668921             6     6     6     6
   -25.5050939132             1     1     0     0
  -0.191976278099E-11         2     1     0     0
   -25.5052793518             2     2     0     0
   0.527357118594E-08         3     1     0     0
   0.509600498679             3     2     0     0
   -6.60295122250             3     3     0     0
   0.513712289894             4     1     0     0
  -0.531621303559E-08         4     2     0     0
  -0.229403013241E-11         4     3     0     0
   -6.60889413873             4     4     0     0
  -0.294353879379E-09         5     1     0     0
  -0.278425994674E-01         5     2     0     0
  -0.172868979943             5     3     0     0
   0.147209917867E-10         5     4     0     0
   -6.25318336684             5     5     0     0
  -0.195417473766E-13         6     1     0     0
  -0.106007125851E-15         6     3     0     0
   0.132297029781E-13         6     4     0     0
   -6.21209582865             6     6     0     0
    9.26060119080             0     0     0     0
