 &FCI NORB=  3,NELEC= 4,MS2= 0,
  ORBSYM=1,1,1
  ISYM=1
 &END
    2.30426752676             1     1     1     1
  -0.516831320090E-10         1     1     2     1
    1.81827978901             2     1     2     1
   0.517223098813E-10         2     2     2     1
    2.30311712157             1     1     2     2
    2.30197057934             2     2     2     2
  -0.214564924535             1     1     3     1
   0.307121407666E-11         2     1     3     1
  -0.214325518546             2     2     3     1
   0.351628895924E-01         3     1     3     1
   0.123664235974E-14         3     2     3     1
  -0.835650865035E-02         3     3     3     1
   0.310205761948E-11         1     1     3     2
  -0.216360430834             2     1     3     2
  -0.919874821015E-11         2     2     3     2
   0.350616485425E-01         3     2     3     2
  -0.118597645010E-12         3     3     3     2
   0.748774355875             1     1     3     3
  -0.363346122873E-14         2     1     3     3
   0.748845508392             2     2     3     3
   0.626640187488             3     3     3     3
   -27.5675711413             1     1     0     0
  -0.306065936484E-13         2     1     0     0
   -27.5654096775             2     2     0     0
   0.607174729493             3     1     0     0
   0.863060317657E-11         3     2     0     0
   -9.05987958183             3     3     0     0
    23.7451312585             0     0     0     0
