 &FCI NORB=  2,NELEC= 2,MS2= 0,
  ORBSYM=1,1
  ISYM=1
 &END
   0.807495016906             1     1     1     1
   0.827037938954E-01         1     1     2     1
   0.720983460257E-01         2     1     2     1
  -0.735189819334E-01         2     2     2     1
   0.587160799682             1     1     2     2
   0.821613332170             2     2     2     2
   -1.15150523921             1     1     0     0
   0.387100091857             2     1     0     0
  -0.556479324913             2     2     0     0
   0.881962018172             0     0     0     0
